# vtk DataFile Version 2.0
Unstructured Grid Example
ASCII
DATASET UNSTRUCTURED_GRID
POINTS 654 float
-1.000000 -0.600000 0.000000 
-1.000000 -0.600000 0.200000 
-1.000000 -0.600000 0.400000 
-1.000000 -0.600000 0.600000 
-1.000000 -0.600000 0.800000 
-1.000000 -0.600000 1.000000 
-1.000000 -0.400000 0.000000 
-1.000000 -0.400000 0.200000 
-1.000000 -0.400000 0.400000 
-1.000000 -0.400000 0.600000 
-1.000000 -0.400000 0.800000 
-1.000000 -0.400000 1.000000 
-1.000000 -0.200000 0.000000 
-1.000000 -0.200000 0.200000 
-1.000000 -0.200000 0.400000 
-1.000000 -0.200000 0.600000 
-1.000000 -0.200000 0.800000 
-1.000000 -0.200000 1.000000 
-1.000000 0.000000 0.000000 
-1.000000 0.000000 0.200000 
-1.000000 0.000000 0.400000 
-1.000000 0.000000 0.600000 
-1.000000 0.000000 0.800000 
-1.000000 0.000000 1.000000 
-1.000000 0.200000 0.000000 
-1.000000 0.200000 0.200000 
-1.000000 0.200000 0.400000 
-1.000000 0.200000 0.600000 
-1.000000 0.200000 0.800000 
-1.000000 0.200000 1.000000 
-1.000000 0.400000 0.000000 
-1.000000 0.400000 0.200000 
-1.000000 0.400000 0.400000 
-1.000000 0.400000 0.600000 
-1.000000 0.400000 0.800000 
-1.000000 0.400000 1.000000 
-1.000000 0.600000 0.000000 
-1.000000 0.600000 0.200000 
-1.000000 0.600000 0.400000 
-1.000000 0.600000 0.600000 
-1.000000 0.600000 0.800000 
-1.000000 0.600000 1.000000 
-0.800000 -0.800000 0.000000 
-0.800000 -0.800000 0.200000 
-0.800000 -0.800000 0.400000 
-0.800000 -0.800000 0.600000 
-0.800000 -0.800000 0.800000 
-0.800000 -0.800000 1.000000 
-0.800000 -0.600000 0.000000 
-0.800000 -0.600000 0.200000 
-0.800000 -0.600000 0.400000 
-0.800000 -0.600000 0.600000 
-0.800000 -0.600000 0.800000 
-0.800000 -0.600000 1.000000 
-0.800000 -0.400000 0.000000 
-0.800000 -0.400000 0.200000 
-0.800000 -0.400000 0.400000 
-0.800000 -0.400000 0.600000 
-0.800000 -0.400000 0.800000 
-0.800000 -0.400000 1.000000 
-0.800000 -0.200000 0.000000 
-0.800000 -0.200000 0.200000 
-0.800000 -0.200000 0.400000 
-0.800000 -0.200000 0.600000 
-0.800000 -0.200000 0.800000 
-0.800000 -0.200000 1.000000 
-0.800000 0.000000 0.000000 
-0.800000 0.000000 0.200000 
-0.800000 0.000000 0.400000 
-0.800000 0.000000 0.600000 
-0.800000 0.000000 0.800000 
-0.800000 0.000000 1.000000 
-0.800000 0.200000 0.000000 
-0.800000 0.200000 0.200000 
-0.800000 0.200000 0.400000 
-0.800000 0.200000 0.600000 
-0.800000 0.200000 0.800000 
-0.800000 0.200000 1.000000 
-0.800000 0.400000 0.000000 
-0.800000 0.400000 0.200000 
-0.800000 0.400000 0.400000 
-0.800000 0.400000 0.600000 
-0.800000 0.400000 0.800000 
-0.800000 0.400000 1.000000 
-0.800000 0.600000 0.000000 
-0.800000 0.600000 0.200000 
-0.800000 0.600000 0.400000 
-0.800000 0.600000 0.600000 
-0.800000 0.600000 0.800000 
-0.800000 0.600000 1.000000 
-0.800000 0.800000 0.000000 
-0.800000 0.800000 0.200000 
-0.800000 0.800000 0.400000 
-0.800000 0.800000 0.600000 
-0.800000 0.800000 0.800000 
-0.800000 0.800000 1.000000 
-0.600000 -1.000000 0.000000 
-0.600000 -1.000000 0.200000 
-0.600000 -1.000000 0.400000 
-0.600000 -1.000000 0.600000 
-0.600000 -1.000000 0.800000 
-0.600000 -1.000000 1.000000 
-0.600000 -0.800000 0.000000 
-0.600000 -0.800000 0.200000 
-0.600000 -0.800000 0.400000 
-0.600000 -0.800000 0.600000 
-0.600000 -0.800000 0.800000 
-0.600000 -0.800000 1.000000 
-0.600000 -0.600000 0.000000 
-0.600000 -0.600000 0.200000 
-0.600000 -0.600000 0.400000 
-0.600000 -0.600000 0.600000 
-0.600000 -0.600000 0.800000 
-0.600000 -0.600000 1.000000 
-0.600000 -0.400000 0.000000 
-0.600000 -0.400000 0.200000 
-0.600000 -0.400000 0.400000 
-0.600000 -0.400000 0.600000 
-0.600000 -0.400000 0.800000 
-0.600000 -0.400000 1.000000 
-0.600000 -0.200000 0.000000 
-0.600000 -0.200000 0.200000 
-0.600000 -0.200000 0.400000 
-0.600000 -0.200000 0.600000 
-0.600000 -0.200000 0.800000 
-0.600000 -0.200000 1.000000 
-0.600000 0.000000 0.000000 
-0.600000 0.000000 0.200000 
-0.600000 0.000000 0.400000 
-0.600000 0.000000 0.600000 
-0.600000 0.000000 0.800000 
-0.600000 0.000000 1.000000 
-0.600000 0.200000 0.000000 
-0.600000 0.200000 0.200000 
-0.600000 0.200000 0.400000 
-0.600000 0.200000 0.600000 
-0.600000 0.200000 0.800000 
-0.600000 0.200000 1.000000 
-0.600000 0.400000 0.000000 
-0.600000 0.400000 0.200000 
-0.600000 0.400000 0.400000 
-0.600000 0.400000 0.600000 
-0.600000 0.400000 0.800000 
-0.600000 0.400000 1.000000 
-0.600000 0.600000 0.000000 
-0.600000 0.600000 0.200000 
-0.600000 0.600000 0.400000 
-0.600000 0.600000 0.600000 
-0.600000 0.600000 0.800000 
-0.600000 0.600000 1.000000 
-0.600000 0.800000 0.000000 
-0.600000 0.800000 0.200000 
-0.600000 0.800000 0.400000 
-0.600000 0.800000 0.600000 
-0.600000 0.800000 0.800000 
-0.600000 0.800000 1.000000 
-0.600000 1.000000 0.000000 
-0.600000 1.000000 0.200000 
-0.600000 1.000000 0.400000 
-0.600000 1.000000 0.600000 
-0.600000 1.000000 0.800000 
-0.600000 1.000000 1.000000 
-0.400000 -1.000000 0.000000 
-0.400000 -1.000000 0.200000 
-0.400000 -1.000000 0.400000 
-0.400000 -1.000000 0.600000 
-0.400000 -1.000000 0.800000 
-0.400000 -1.000000 1.000000 
-0.400000 -0.800000 0.000000 
-0.400000 -0.800000 0.200000 
-0.400000 -0.800000 0.400000 
-0.400000 -0.800000 0.600000 
-0.400000 -0.800000 0.800000 
-0.400000 -0.800000 1.000000 
-0.400000 -0.600000 0.000000 
-0.400000 -0.600000 0.200000 
-0.400000 -0.600000 0.400000 
-0.400000 -0.600000 0.600000 
-0.400000 -0.600000 0.800000 
-0.400000 -0.600000 1.000000 
-0.400000 -0.400000 0.000000 
-0.400000 -0.400000 0.200000 
-0.400000 -0.400000 0.400000 
-0.400000 -0.400000 0.600000 
-0.400000 -0.400000 0.800000 
-0.400000 -0.400000 1.000000 
-0.400000 -0.200000 0.000000 
-0.400000 -0.200000 0.200000 
-0.400000 -0.200000 0.400000 
-0.400000 -0.200000 0.600000 
-0.400000 -0.200000 0.800000 
-0.400000 -0.200000 1.000000 
-0.400000 0.000000 0.000000 
-0.400000 0.000000 0.200000 
-0.400000 0.000000 0.400000 
-0.400000 0.000000 0.600000 
-0.400000 0.000000 0.800000 
-0.400000 0.000000 1.000000 
-0.400000 0.200000 0.000000 
-0.400000 0.200000 0.200000 
-0.400000 0.200000 0.400000 
-0.400000 0.200000 0.600000 
-0.400000 0.200000 0.800000 
-0.400000 0.200000 1.000000 
-0.400000 0.400000 0.000000 
-0.400000 0.400000 0.200000 
-0.400000 0.400000 0.400000 
-0.400000 0.400000 0.600000 
-0.400000 0.400000 0.800000 
-0.400000 0.400000 1.000000 
-0.400000 0.600000 0.000000 
-0.400000 0.600000 0.200000 
-0.400000 0.600000 0.400000 
-0.400000 0.600000 0.600000 
-0.400000 0.600000 0.800000 
-0.400000 0.600000 1.000000 
-0.400000 0.800000 0.000000 
-0.400000 0.800000 0.200000 
-0.400000 0.800000 0.400000 
-0.400000 0.800000 0.600000 
-0.400000 0.800000 0.800000 
-0.400000 0.800000 1.000000 
-0.400000 1.000000 0.000000 
-0.400000 1.000000 0.200000 
-0.400000 1.000000 0.400000 
-0.400000 1.000000 0.600000 
-0.400000 1.000000 0.800000 
-0.400000 1.000000 1.000000 
-0.200000 -1.000000 0.000000 
-0.200000 -1.000000 0.200000 
-0.200000 -1.000000 0.400000 
-0.200000 -1.000000 0.600000 
-0.200000 -1.000000 0.800000 
-0.200000 -1.000000 1.000000 
-0.200000 -0.800000 0.000000 
-0.200000 -0.800000 0.200000 
-0.200000 -0.800000 0.400000 
-0.200000 -0.800000 0.600000 
-0.200000 -0.800000 0.800000 
-0.200000 -0.800000 1.000000 
-0.200000 -0.600000 0.000000 
-0.200000 -0.600000 0.200000 
-0.200000 -0.600000 0.400000 
-0.200000 -0.600000 0.600000 
-0.200000 -0.600000 0.800000 
-0.200000 -0.600000 1.000000 
-0.200000 -0.400000 0.000000 
-0.200000 -0.400000 0.200000 
-0.200000 -0.400000 0.400000 
-0.200000 -0.400000 0.600000 
-0.200000 -0.400000 0.800000 
-0.200000 -0.400000 1.000000 
-0.200000 -0.200000 0.000000 
-0.200000 -0.200000 0.200000 
-0.200000 -0.200000 0.400000 
-0.200000 -0.200000 0.600000 
-0.200000 -0.200000 0.800000 
-0.200000 -0.200000 1.000000 
-0.200000 0.000000 0.000000 
-0.200000 0.000000 0.200000 
-0.200000 0.000000 0.400000 
-0.200000 0.000000 0.600000 
-0.200000 0.000000 0.800000 
-0.200000 0.000000 1.000000 
-0.200000 0.200000 0.000000 
-0.200000 0.200000 0.200000 
-0.200000 0.200000 0.400000 
-0.200000 0.200000 0.600000 
-0.200000 0.200000 0.800000 
-0.200000 0.200000 1.000000 
-0.200000 0.400000 0.000000 
-0.200000 0.400000 0.200000 
-0.200000 0.400000 0.400000 
-0.200000 0.400000 0.600000 
-0.200000 0.400000 0.800000 
-0.200000 0.400000 1.000000 
-0.200000 0.600000 0.000000 
-0.200000 0.600000 0.200000 
-0.200000 0.600000 0.400000 
-0.200000 0.600000 0.600000 
-0.200000 0.600000 0.800000 
-0.200000 0.600000 1.000000 
-0.200000 0.800000 0.000000 
-0.200000 0.800000 0.200000 
-0.200000 0.800000 0.400000 
-0.200000 0.800000 0.600000 
-0.200000 0.800000 0.800000 
-0.200000 0.800000 1.000000 
-0.200000 1.000000 0.000000 
-0.200000 1.000000 0.200000 
-0.200000 1.000000 0.400000 
-0.200000 1.000000 0.600000 
-0.200000 1.000000 0.800000 
-0.200000 1.000000 1.000000 
0.000000 -1.000000 0.000000 
0.000000 -1.000000 0.200000 
0.000000 -1.000000 0.400000 
0.000000 -1.000000 0.600000 
0.000000 -1.000000 0.800000 
0.000000 -1.000000 1.000000 
0.000000 -0.800000 0.000000 
0.000000 -0.800000 0.200000 
0.000000 -0.800000 0.400000 
0.000000 -0.800000 0.600000 
0.000000 -0.800000 0.800000 
0.000000 -0.800000 1.000000 
0.000000 -0.600000 0.000000 
0.000000 -0.600000 0.200000 
0.000000 -0.600000 0.400000 
0.000000 -0.600000 0.600000 
0.000000 -0.600000 0.800000 
0.000000 -0.600000 1.000000 
0.000000 -0.400000 0.000000 
0.000000 -0.400000 0.200000 
0.000000 -0.400000 0.400000 
0.000000 -0.400000 0.600000 
0.000000 -0.400000 0.800000 
0.000000 -0.400000 1.000000 
0.000000 -0.200000 0.000000 
0.000000 -0.200000 0.200000 
0.000000 -0.200000 0.400000 
0.000000 -0.200000 0.600000 
0.000000 -0.200000 0.800000 
0.000000 -0.200000 1.000000 
0.000000 0.000000 0.000000 
0.000000 0.000000 0.200000 
0.000000 0.000000 0.400000 
0.000000 0.000000 0.600000 
0.000000 0.000000 0.800000 
0.000000 0.000000 1.000000 
0.000000 0.200000 0.000000 
0.000000 0.200000 0.200000 
0.000000 0.200000 0.400000 
0.000000 0.200000 0.600000 
0.000000 0.200000 0.800000 
0.000000 0.200000 1.000000 
0.000000 0.400000 0.000000 
[...]
CELL_DATA 437
SCALARS u float 1
LOOKUP_TABLE default
-0.000158
0.003551
0.005746
0.003529
-0.000112
-0.000330
0.004592
-0.000199
0.003932
-0.000233
-0.001104
0.004297
0.008513
0.004792
-0.000104
-0.000336
0.005789
0.017515
0.005159
-0.000331
0.000292
0.002105
0.008583
0.002092
0.000232
0.000319
0.004566
0.028005
0.006249
0.000357
-0.001462
0.001485
-0.009619
0.000967
-0.000936
-0.001383
0.002321
-0.007264
0.002593
-0.001362
-0.003539
0.000392
0.004275
0.000644
-0.003524
-0.005843
-0.005266
-0.004994
-0.005669
-0.006678
-0.004176
-0.007673
-0.008687
-0.006808
-0.006561
-0.003668
-0.006975
-0.007432
-0.006761
-0.002508
0.000390
0.000578
0.021497
-0.001264
0.000607
0.000043
-0.006633
-0.004521
-0.007210
0.000746
-0.000771
-0.000423
-0.011298
-0.000423
-0.000971
-0.003067
0.003156
0.004932
0.002759
-0.002787
-0.005279
-0.001930
0.000380
-0.001319
-0.004590
-0.004754
-0.005992
-0.005698
-0.007368
-0.007538
-0.005962
-0.008252
-0.011908
-0.004709
-0.005873
-0.003364
-0.005666
-0.009239
-0.007689
-0.002531
0.004400
-0.001121
-0.005297
-0.000106
0.001435
0.009010
0.000133
-0.009394
-0.001513
0.011194
0.004604
-0.012730
-0.001729
-0.009930
0.005177
0.001197
-0.007325
0.025286
-0.007105
-0.000233
-0.002706
0.001436
-0.009645
0.001278
-0.002206
-0.003109
-0.001433
0.001816
-0.000612
-0.003752
-0.005673
-0.005633
-0.003614
-0.006109
-0.008291
-0.005402
-0.005101
-0.004525
-0.004418
-0.004198
0.000666
0.000245
0.001411
-0.001004
-0.003568
0.008251
0.007578
0.006571
0.011064
0.018491
0.046075
0.021375
0.028224
0.034249
0.037207
0.041387
0.032785
0.044503
0.041939
0.041073
0.027858
0.011015
-0.007493
0.013023
0.025301
0.009328
-0.037999
-0.078502
-0.038443
0.012299
-0.001934
0.004497
-0.002348
0.004400
-0.002272
-0.003892
-0.000367
0.002466
-0.001043
-0.003810
-0.008480
-0.005805
-0.007038
-0.004914
-0.006026
-0.003652
-0.003174
-0.006301
-0.002089
-0.006204
0.015241
0.005755
0.016971
0.001826
0.035095
0.041334
0.048778
0.058690
0.075276
0.132132
0.097862
0.050671
0.132237
0.076553
0.116800
0.120688
0.096083
0.116748
0.097632
0.130957
0.095331
0.077836
0.089758
0.048654
0.022434
0.073125
0.039498
0.038203
-0.001618
0.002985
-0.012626
0.002939
-0.002104
-0.004316
-0.000928
0.001545
-0.001660
-0.004754
-0.007081
-0.005180
-0.006809
-0.005264
-0.005436
-0.002422
-0.006703
-0.005524
0.001100
-0.001214
0.029812
0.019513
0.004806
0.010252
0.110888
0.070684
0.097250
0.029781
0.116867
0.087055
0.036998
0.126812
0.072878
0.081413
0.190761
0.218464
0.217221
0.172318
0.128156
0.138309
0.225735
0.293203
0.218747
0.118412
0.086033
0.154183
-0.081042
0.128846
0.073704
-0.001963
0.005217
0.006704
0.004796
-0.001672
-0.003903
-0.001985
0.000524
-0.000716
-0.004383
-0.009232
-0.008473
-0.008194
-0.006897
-0.009687
-0.003035
0.001007
-0.003900
-0.002113
-0.000944
0.025160
0.013186
0.028403
0.012113
0.020265
0.035986
0.040597
0.074635
0.078391
0.059632
0.094305
0.165829
0.184236
0.154201
0.144773
0.141536
0.227337
0.278024
0.183847
0.170879
0.132264
0.284114
0.390998
0.285808
0.184759
0.109489
0.182964
0.064082
0.204015
0.087718
-0.000263
-0.000288
-0.018206
-0.000426
-0.000149
-0.002791
0.003931
0.008019
0.003136
-0.002924
-0.005090
-0.004464
-0.003642
-0.005463
-0.006961
-0.003906
-0.009861
-0.008492
-0.009074
-0.003912
0.007378
0.008365
0.005847
0.008677
0.010137
0.049971
0.050063
0.043790
0.031266
0.026567
0.085709
0.091370
0.089188
0.096962
0.078634
0.094091
0.167746
0.164119
0.176818
0.099316
0.134271
0.161619
0.099528
0.179277
0.128753
0.025547
0.066864
-0.009886
0.056098
0.022707
-0.000113
0.006083
0.012530
0.006385
0.000203
-0.001456
0.001837
-0.004326
0.001862
-0.001810
-0.002992
-0.004685
-0.000595
-0.003136
-0.002913
0.002600
-0.004400
-0.009602
-0.004597
0.001828
0.017416
0.009201
-0.002399
0.010811
0.020169
0.042737
0.014377
-0.007306
0.008658
0.033913
0.039696
0.029204
0.041129
0.032517
0.044138
0.036791
0.034223
-0.088143
0.023949
0.029181
0.000168
0.003375
0.008666
0.004143
0.000273
0.001241
0.008132
0.033439
0.007922
0.000707
0.001289
-0.004985
0.002336
-0.004283
0.001576
0.003685
-0.002234
0.049365
-0.003167
0.003902
0.003945
-0.033246
-0.039958
-0.032080
0.007523
0.005093
-0.011644
0.017512
-0.011978
0.003421
